
    -----------------------------------------------------------------------
          Psi4: An Open-Source Ab Initio Electronic Structure Package
                               Psi4 1.1rc2.dev3 

                         Git: Rev {master} 53e752c 


    R. M. Parrish, L. A. Burns, D. G. A. Smith, A. C. Simmonett,
    A. E. DePrince III, E. G. Hohenstein, U. Bozkaya, A. Yu. Sokolov,
    R. Di Remigio, R. M. Richard, J. F. Gonthier, A. M. James,
    H. R. McAlexander, A. Kumar, M. Saitow, X. Wang, B. P. Pritchard,
    P. Verma, H. F. Schaefer III, K. Patkowski, R. A. King, E. F. Valeev,
    F. A. Evangelista, J. M. Turney, T. D. Crawford, and C. D. Sherrill,
    submitted.

    -----------------------------------------------------------------------


    Psi4 started on: Saturday, 15 April 2017 01:30PM

    Process ID:   6042
    PSIDATADIR: /home/eric/opt/apps/psi4/git-g6.3.1-openblas/share/psi4
    Memory:     500.0 MiB
    Threads:    1
    
  ==> Input File <==

--------------------------------------------------------------------------
molecule {
    0 2
    H 0.000 0.000 0.000
    O 0.000 0.000 0.9697
    units angstrom
    symmetry c1
    no_reorient
    no_com
}

set {
    reference uhf
    basis sto-3g
    scf_type direct
}

energy('hf')
--------------------------------------------------------------------------

*** tstart() called on copper
*** at Sat Apr 15 13:30:13 2017

   => Loading Basis Set <=

    Name: STO-3G
    Role: ORBITAL
    Keyword: BASIS
    atoms 1 entry H          line    18 file /home/eric/opt/apps/psi4/git-g6.3.1-openblas/share/psi4/basis/sto-3g.gbs 
    atoms 2 entry O          line    80 file /home/eric/opt/apps/psi4/git-g6.3.1-openblas/share/psi4/basis/sto-3g.gbs 


         ---------------------------------------------------------
                                   SCF
            by Justin Turney, Rob Parrish, and Andy Simmonett
                              UHF Reference
                        1 Threads,    500 MiB Core
         ---------------------------------------------------------

  ==> Geometry <==

    Molecular point group: c1
    Full point group: C_inf_v

    Geometry (in Angstrom), charge = 0, multiplicity = 2:

       Center              X                  Y                   Z               Mass       
    ------------   -----------------  -----------------  -----------------  -----------------
           H          0.000000000000     0.000000000000     0.000000000000     1.007825032070
           O          0.000000000000     0.000000000000     0.969700000000    15.994914619560

  Running in c1 symmetry.

  Rotational constants: A = ************  B =      1.12083  C =      1.12083 [cm^-1]
  Rotational constants: A = ************  B =  33601.64031  C =  33601.64031 [MHz]
  Nuclear repulsion =    4.365698328060224

  Charge       = 0
  Multiplicity = 2
  Electrons    = 9
  Nalpha       = 5
  Nbeta        = 4

  ==> Algorithm <==

  SCF Algorithm Type is DIRECT.
  DIIS enabled.
  MOM disabled.
  Fractional occupation disabled.
  Guess Type is GWH.
  Energy threshold   = 1.00e-06
  Density threshold  = 1.00e-06
  Integral threshold = 0.00e+00

  ==> Primary Basis <==

  Basis Set: STO-3G
    Blend: STO-3G
    Number of shells: 4
    Number of basis function: 6
    Number of Cartesian functions: 6
    Spherical Harmonics?: true
    Max angular momentum: 1

   => Loading Basis Set <=

    Name: (STO-3G AUX)
    Role: JKFIT
    Keyword: DF_BASIS_SCF
    atoms 1 entry H          line    22 file /home/eric/opt/apps/psi4/git-g6.3.1-openblas/share/psi4/basis/def2-svp-jkfit.gbs 
    atoms 2 entry O          line   322 file /home/eric/opt/apps/psi4/git-g6.3.1-openblas/share/psi4/basis/def2-svp-jkfit.gbs 

  ==> Pre-Iterations <==

   -------------------------------------------------------
    Irrep   Nso     Nmo     Nalpha   Nbeta   Ndocc  Nsocc
   -------------------------------------------------------
     A          6       6       0       0       0       0
   -------------------------------------------------------
    Total       6       6       5       4       4       1
   -------------------------------------------------------

  Starting with a DF guess...

  ==> Integral Setup <==

  ==> DFJK: Density-Fitted J/K Matrices <==

    J tasked:                  Yes
    K tasked:                  Yes
    wK tasked:                  No
    OpenMP threads:              1
    Integrals threads:           1
    Memory (MB):               375
    Algorithm:                Core
    Integral Cache:           NONE
    Schwarz Cutoff:          1E-12
    Fitting Condition:       1E-12

   => Auxiliary Basis Set <=

  Basis Set: (STO-3G AUX)
    Blend: DEF2-SVP-JKFIT
    Number of shells: 31
    Number of basis function: 95
    Number of Cartesian functions: 113
    Spherical Harmonics?: true
    Max angular momentum: 4

  Minimum eigenvalue in the overlap matrix is 3.7757418718E-01.
  Using Symmetric Orthogonalization.

  SCF Guess: Generalized Wolfsberg-Helmholtz.

  ==> Iterations <==

                           Total Energy        Delta E     RMS |[F,P]|

   @DF-UHF iter   1:   -74.16109646307622   -7.41611e+01   7.95974e-02 
   @DF-UHF iter   2:   -74.34548897901604   -1.84393e-01   2.14459e-02 DIIS
   @DF-UHF iter   3:   -74.36249938236767   -1.70104e-02   2.37910e-03 DIIS
   @DF-UHF iter   4:   -74.36267082114671   -1.71439e-04   7.13320e-04 DIIS
   @DF-UHF iter   5:   -74.36270095799716   -3.01369e-05   4.21356e-04 DIIS
   @DF-UHF iter   6:   -74.36271821146403   -1.72535e-05   3.07800e-05 DIIS
   @DF-UHF iter   7:   -74.36271824139702   -2.99330e-08   8.92392e-06 DIIS
   @DF-UHF iter   8:   -74.36271824412715   -2.73013e-09   8.35964e-07 DIIS

  DF guess converged.

  ==> Integral Setup <==

  ==> DirectJK: Integral-Direct J/K Matrices <==

    J tasked:                  Yes
    K tasked:                  Yes
    wK tasked:                  No
    Integrals threads:           1
    Schwarz Cutoff:          1E-12

   @UHF iter   9:   -74.36263751748085    8.07266e-05   7.15743e-06 DIIS
   @UHF iter  10:   -74.36263751907138   -1.59054e-09   8.62387e-07 DIIS

  ==> Post-Iterations <==

   @Spin Contamination Metric:   3.255129333E-03
   @S^2 Expected:                7.500000000E-01
   @S^2 Observed:                7.532551293E-01
   @S   Expected:                5.000000000E-01
   @S   Observed:                5.000000000E-01

    Orbital Energies (a.u.)
    -----------------------

    Alpha Occupied:                                                       

       1A    -20.285694     2A     -1.292275     3A     -0.551052  
       4A     -0.524566     5A     -0.429677  

    Alpha Virtual:                                                        

       6A      0.620361  

    Beta Occupied:                                                        

       1A    -20.257220     2A     -1.128310     3A     -0.502929  
       4A     -0.377805  

    Beta Virtual:                                                         

       5A      0.360021     6A      0.656070  

    Final Occupation by Irrep:
              A 
    DOCC [     4 ]
    SOCC [     1 ]

  Energy converged.

  @UHF Final Energy:   -74.36263751907138

   => Energetics <=

    Nuclear Repulsion Energy =              4.3656983280602244
    One-Electron Energy =                -112.1071285939079303
    Two-Electron Energy =                  33.3787927467763126
    DFT Exchange-Correlation Energy =       0.0000000000000000
    Empirical Dispersion Energy =           0.0000000000000000
    PCM Polarization Energy =               0.0000000000000000
    EFP Energy =                            0.0000000000000000
    Total Energy =                        -74.3626375190713986

    Alert: EFP and PCM quantities not currently incorporated into SCF psivars.
  UHF NO Occupations:
  HONO-2 :    3  A 2.0000000
  HONO-1 :    4  A 1.9983711
  HONO-0 :    5  A 1.0000000
  LUNO+0 :    6  A 0.0016289



Properties will be evaluated at   0.000000,   0.000000,   0.000000 Bohr

Properties computed using the SCF density matrix

  Nuclear Dipole Moment: (a.u.)
     X:     0.0000      Y:     0.0000      Z:    14.6597

  Electronic Dipole Moment: (a.u.)
     X:    -0.0000      Y:     0.0000      Z:   -15.1629

  Dipole Moment: (a.u.)
     X:    -0.0000      Y:     0.0000      Z:    -0.5031     Total:     0.5031

  Dipole Moment: (Debye)
     X:    -0.0000      Y:     0.0000      Z:    -1.2788     Total:     1.2788


*** tstop() called on copper at Sat Apr 15 13:30:15 2017
Module time:
	user time   =       0.26 seconds =       0.00 minutes
	system time =       0.01 seconds =       0.00 minutes
	total time  =          2 seconds =       0.03 minutes
Total time:
	user time   =       0.26 seconds =       0.00 minutes
	system time =       0.01 seconds =       0.00 minutes
	total time  =          2 seconds =       0.03 minutes

*** Psi4 exiting successfully. Buy a developer a beer!
