
    -----------------------------------------------------------------------
          Psi4: An Open-Source Ab Initio Electronic Structure Package
                               Psi4 1.1rc2.dev3 

                         Git: Rev {master} 53e752c 


    R. M. Parrish, L. A. Burns, D. G. A. Smith, A. C. Simmonett,
    A. E. DePrince III, E. G. Hohenstein, U. Bozkaya, A. Yu. Sokolov,
    R. Di Remigio, R. M. Richard, J. F. Gonthier, A. M. James,
    H. R. McAlexander, A. Kumar, M. Saitow, X. Wang, B. P. Pritchard,
    P. Verma, H. F. Schaefer III, K. Patkowski, R. A. King, E. F. Valeev,
    F. A. Evangelista, J. M. Turney, T. D. Crawford, and C. D. Sherrill,
    submitted.

    -----------------------------------------------------------------------


    Psi4 started on: Friday, 14 April 2017 03:21PM

    Process ID:  26319
    PSIDATADIR: /home/eric/opt/apps/psi4/git-g6.3.1-openblas/share/psi4
    Memory:     500.0 MiB
    Threads:    1
    
  ==> Input File <==

--------------------------------------------------------------------------
molecule {
    Li        -1.67861        0.61476       -0.00041
    H         -0.01729        0.38654       -0.00063
    H         -0.84551        3.08551       -0.00236
    H         -0.46199        3.67980       -0.03270
    units angstrom
    symmetry c1
    no_reorient
    no_com
}

set {
    basis sto-3g
    scf_type direct
}

energy('hf')
--------------------------------------------------------------------------

*** tstart() called on copper
*** at Fri Apr 14 15:21:16 2017

   => Loading Basis Set <=

    Name: STO-3G
    Role: ORBITAL
    Keyword: BASIS
    atoms 1   entry LI         line    30 file /home/eric/opt/apps/psi4/git-g6.3.1-openblas/share/psi4/basis/sto-3g.gbs 
    atoms 2-4 entry H          line    18 file /home/eric/opt/apps/psi4/git-g6.3.1-openblas/share/psi4/basis/sto-3g.gbs 

    There are an even number of electrons - assuming singlet.
    Specify the multiplicity in the molecule input block.


         ---------------------------------------------------------
                                   SCF
            by Justin Turney, Rob Parrish, and Andy Simmonett
                              RHF Reference
                        1 Threads,    500 MiB Core
         ---------------------------------------------------------

  ==> Geometry <==

    Molecular point group: c1
    Full point group: C1

    Geometry (in Angstrom), charge = 0, multiplicity = 1:

       Center              X                  Y                   Z               Mass       
    ------------   -----------------  -----------------  -----------------  -----------------
          LI         -1.678610000000     0.614760000000    -0.000410000000     7.016004548000
           H         -0.017290000000     0.386540000000    -0.000630000000     1.007825032070
           H         -0.845510000000     3.085510000000    -0.002360000000     1.007825032070
           H         -0.461990000000     3.679800000000    -0.032700000000     1.007825032070

  Running in c1 symmetry.

  Rotational constants: A =      1.46814  B =      0.47799  C =      0.36059 [cm^-1]
  Rotational constants: A =  44013.62732  B =  14329.63488  C =  10810.30652 [MHz]
  Nuclear repulsion =    3.131084241985257

  Charge       = 0
  Multiplicity = 1
  Electrons    = 6
  Nalpha       = 3
  Nbeta        = 3

  ==> Algorithm <==

  SCF Algorithm Type is DIRECT.
  DIIS enabled.
  MOM disabled.
  Fractional occupation disabled.
  Guess Type is SAD.
  Energy threshold   = 1.00e-06
  Density threshold  = 1.00e-06
  Integral threshold = 0.00e+00

  ==> Primary Basis <==

  Basis Set: STO-3G
    Blend: STO-3G
    Number of shells: 6
    Number of basis function: 8
    Number of Cartesian functions: 8
    Spherical Harmonics?: true
    Max angular momentum: 1

   => Loading Basis Set <=

    Name: (STO-3G AUX)
    Role: JKFIT
    Keyword: DF_BASIS_SCF
    atoms 1   entry LI         line    58 file /home/eric/opt/apps/psi4/git-g6.3.1-openblas/share/psi4/basis/def2-svp-jkfit.gbs 
    atoms 2-4 entry H          line    22 file /home/eric/opt/apps/psi4/git-g6.3.1-openblas/share/psi4/basis/def2-svp-jkfit.gbs 

  ==> Pre-Iterations <==

   -------------------------------------------------------
    Irrep   Nso     Nmo     Nalpha   Nbeta   Ndocc  Nsocc
   -------------------------------------------------------
     A          8       8       0       0       0       0
   -------------------------------------------------------
    Total       8       8       3       3       3       0
   -------------------------------------------------------

  Starting with a DF guess...

  ==> Integral Setup <==

  ==> DFJK: Density-Fitted J/K Matrices <==

    J tasked:                  Yes
    K tasked:                  Yes
    wK tasked:                  No
    OpenMP threads:              1
    Integrals threads:           1
    Memory (MB):               375
    Algorithm:                Core
    Integral Cache:           NONE
    Schwarz Cutoff:          1E-12
    Fitting Condition:       1E-12

   => Auxiliary Basis Set <=

  Basis Set: (STO-3G AUX)
    Blend: DEF2-SVP-JKFIT
    Number of shells: 35
    Number of basis function: 105
    Number of Cartesian functions: 120
    Spherical Harmonics?: true
    Max angular momentum: 3

  Minimum eigenvalue in the overlap matrix is 2.8984842279E-01.
  Using Symmetric Orthogonalization.

  SCF Guess: Superposition of Atomic Densities via on-the-fly atomic UHF.

  ==> Iterations <==

                           Total Energy        Delta E     RMS |[F,P]|

   @DF-RHF iter   0:    -8.30250429378384   -8.30250e+00   1.99726e-02 
   @DF-RHF iter   1:    -8.96201877618503   -6.59514e-01   9.97460e-03 
   @DF-RHF iter   2:    -8.97134061457553   -9.32184e-03   2.06978e-03 DIIS
   @DF-RHF iter   3:    -8.97223576042447   -8.95146e-04   7.75672e-04 DIIS
   @DF-RHF iter   4:    -8.97244688941993   -2.11129e-04   8.55814e-05 DIIS
   @DF-RHF iter   5:    -8.97244904647919   -2.15706e-06   8.24651e-06 DIIS
   @DF-RHF iter   6:    -8.97244905492013   -8.44093e-09   1.09806e-06 DIIS
   @DF-RHF iter   7:    -8.97244905507996   -1.59835e-10   5.88184e-08 DIIS

  DF guess converged.

  ==> Integral Setup <==

  ==> DirectJK: Integral-Direct J/K Matrices <==

    J tasked:                  Yes
    K tasked:                  Yes
    wK tasked:                  No
    Integrals threads:           1
    Schwarz Cutoff:          1E-12

   @RHF iter   8:    -8.97234275308516    1.06302e-04   4.76588e-06 DIIS
   @RHF iter   9:    -8.97234275455279   -1.46763e-09   6.68731e-07 DIIS

  ==> Post-Iterations <==

    Orbital Energies (a.u.)
    -----------------------

    Doubly Occupied:                                                      

       1A     -2.350578     2A     -0.595155     3A     -0.274184  

    Virtual:                                                              

       4A      0.078596     5A      0.163902     6A      0.175835  
       7A      0.528925     8A      0.764255  

    Final Occupation by Irrep:
              A 
    DOCC [     3 ]

  Energy converged.

  @RHF Final Energy:    -8.97234275455279

   => Energetics <=

    Nuclear Repulsion Energy =              3.1310842419852567
    One-Electron Energy =                 -17.7670206940422730
    Two-Electron Energy =                   5.6635936975042291
    DFT Exchange-Correlation Energy =       0.0000000000000000
    Empirical Dispersion Energy =           0.0000000000000000
    PCM Polarization Energy =               0.0000000000000000
    EFP Energy =                            0.0000000000000000
    Total Energy =                         -8.9723427545527876

    Alert: EFP and PCM quantities not currently incorporated into SCF psivars.

Properties will be evaluated at   0.000000,   0.000000,   0.000000 Bohr

Properties computed using the SCF density matrix

  Nuclear Dipole Moment: (a.u.)
     X:   -12.0198      Y:    17.0002      Z:    -0.0698

  Electronic Dipole Moment: (a.u.)
     X:    10.1245      Y:   -16.6226      Z:     0.0685

  Dipole Moment: (a.u.)
     X:    -1.8953      Y:     0.3776      Z:    -0.0013     Total:     1.9326

  Dipole Moment: (Debye)
     X:    -4.8174      Y:     0.9597      Z:    -0.0032     Total:     4.9121


*** tstop() called on copper at Fri Apr 14 15:21:18 2017
Module time:
	user time   =       0.55 seconds =       0.01 minutes
	system time =       0.00 seconds =       0.00 minutes
	total time  =          2 seconds =       0.03 minutes
Total time:
	user time   =       0.55 seconds =       0.01 minutes
	system time =       0.00 seconds =       0.00 minutes
	total time  =          2 seconds =       0.03 minutes

*** Psi4 exiting successfully. Buy a developer a beer!
